<?xml version="1.0"?>
<VTKFile type="UnstructuredGrid" version="0.1" byte_order="LittleEndian">
  <UnstructuredGrid>
    <Piece NumberOfPoints="96" NumberOfCells="96">
      <PointData>
        <DataArray type="Int32" Name="id" NumberOfComponents="1" format="ascii">
          0
          1
          2
          3
          4
          5
          6
          7
          8
          9
          10
          11
          12
          13
          14
          15
          16
          17
          18
          19
          20
          21
          22
          23
          24
          25
          26
          27
          28
          29
          30
          31
          32
          33
          34
          35
          36
          37
          38
          39
          40
          41
          42
          43
          44
          45
          46
          47
          48
          49
          50
          51
          52
          53
          54
          55
          56
          57
          58
          59
          60
          61
          62
          63
          64
          65
          66
          67
          68
          69
          70
          71
          72
          73
          74
          75
          76
          77
          78
          79
          80
          81
          82
          83
          84
          85
          86
          87
          88
          89
          90
          91
          92
          93
          94
          95
        </DataArray>
        <DataArray type="Float32" Name="velocity" NumberOfComponents="3" format="ascii">
          -0.000000 0.050000 0.000000
          -0.014066 0.052496 0.000000
          -0.029348 0.050832 0.000000
          -0.044578 0.044578 0.000000
          -0.058363 0.033696 0.000000
          -0.069295 0.018567 0.000000
          -0.076087 0.000000 0.000000
          -0.077694 -0.020818 0.000000
          -0.073424 -0.042391 0.000000
          -0.063025 -0.063025 0.000000
          -0.046739 -0.080955 0.000000
          -0.025319 -0.094493 0.000000
          -0.000000 -0.102174 0.000000
          0.027570 -0.102892 0.000000
          0.055435 -0.096016 0.000000
          0.081471 -0.081471 0.000000
          0.103547 -0.059783 0.000000
          0.119691 -0.032071 0.000000
          0.128261 -0.000000 0.000000
          0.128090 0.034322 0.000000
          0.118608 0.068478 0.000000
          0.099917 0.099917 0.000000
          0.072826 0.126138 0.000000
          0.038823 0.144889 0.000000
          -0.000000 0.050000 0.100000
          -0.014066 0.052496 0.100000
          -0.029348 0.050832 0.100000
          -0.044578 0.044578 0.100000
          -0.058363 0.033696 0.100000
          -0.069295 0.018567 0.100000
          -0.076087 0.000000 0.100000
          -0.077694 -0.020818 0.100000
          -0.073424 -0.042391 0.100000
          -0.063025 -0.063025 0.100000
          -0.046739 -0.080955 0.100000
          -0.025319 -0.094493 0.100000
          -0.000000 -0.102174 0.100000
          0.027570 -0.102892 0.100000
          0.055435 -0.096016 0.100000
          0.081471 -0.081471 0.100000
          0.103547 -0.059783 0.100000
          0.119691 -0.032071 0.100000
          0.128261 -0.000000 0.100000
          0.128090 0.034322 0.100000
          0.118608 0.068478 0.100000
          0.099917 0.099917 0.100000
          0.072826 0.126138 0.100000
          0.038823 0.144889 0.100000
          -0.000000 0.050000 0.200000
          -0.014066 0.052496 0.200000
          -0.029348 0.050832 0.200000
          -0.044578 0.044578 0.200000
          -0.058363 0.033696 0.200000
          -0.069295 0.018567 0.200000
          -0.076087 0.000000 0.200000
          -0.077694 -0.020818 0.200000
          -0.073424 -0.042391 0.200000
          -0.063025 -0.063025 0.200000
          -0.046739 -0.080955 0.200000
          -0.025319 -0.094493 0.200000
          -0.000000 -0.102174 0.200000
          0.027570 -0.102892 0.200000
          0.055435 -0.096016 0.200000
          0.081471 -0.081471 0.200000
          0.103547 -0.059783 0.200000
          0.119691 -0.032071 0.200000
          0.128261 -0.000000 0.200000
          0.128090 0.034322 0.200000
          0.118608 0.068478 0.200000
          0.099917 0.099917 0.200000
          0.072826 0.126138 0.200000
          0.038823 0.144889 0.200000
          -0.000000 0.050000 0.300000
          -0.014066 0.052496 0.300000
          -0.029348 0.050832 0.300000
          -0.044578 0.044578 0.300000
          -0.058363 0.033696 0.300000
          -0.069295 0.018567 0.300000
          -0.076087 0.000000 0.300000
          -0.077694 -0.020818 0.300000
          -0.073424 -0.042391 0.300000
          -0.063025 -0.063025 0.300000
          -0.046739 -0.080955 0.300000
          -0.025319 -0.094493 0.300000
          -0.000000 -0.102174 0.300000
          0.027570 -0.102892 0.300000
          0.055435 -0.096016 0.300000
          0.081471 -0.081471 0.300000
          0.103547 -0.059783 0.300000
          0.119691 -0.032071 0.300000
          0.128261 -0.000000 0.300000
          0.128090 0.034322 0.300000
          0.118608 0.068478 0.300000
          0.099917 0.099917 0.300000
          0.072826 0.126138 0.300000
          0.038823 0.144889 0.300000
        </DataArray>
      </PointData>
      <CellData/>
      <Points>
        <DataArray type="Float32" NumberOfComponents="3" format="ascii">
          0.100000 0.000000 0.000000
          0.104992 0.028133 0.000000
          0.101664 0.058696 0.000000
          0.089157 0.089157 0.000000
          0.067391 0.116725 0.000000
          0.037135 0.138589 0.000000
          0.000000 0.152174 0.000000
          -0.041636 0.155388 0.000000
          -0.084783 0.146848 0.000000
          -0.126049 0.126049 0.000000
          -0.161909 0.093478 0.000000
          -0.188985 0.050639 0.000000
          -0.204348 0.000000 0.000000
          -0.205784 -0.055140 0.000000
          -0.192032 -0.110870 0.000000
          -0.162942 -0.162942 0.000000
          -0.119565 -0.207093 0.000000
          -0.064142 -0.239382 0.000000
          -0.000000 -0.256522 0.000000
          0.068643 -0.256180 0.000000
          0.136957 -0.237216 0.000000
          0.199835 -0.199835 0.000000
          0.252277 -0.145652 0.000000
          0.289778 -0.077646 0.000000
          0.100000 0.000000 0.200000
          0.104992 0.028133 0.200000
          0.101664 0.058696 0.200000
          0.089157 0.089157 0.200000
          0.067391 0.116725 0.200000
          0.037135 0.138589 0.200000
          0.000000 0.152174 0.200000
          -0.041636 0.155388 0.200000
          -0.084783 0.146848 0.200000
          -0.126049 0.126049 0.200000
          -0.161909 0.093478 0.200000
          -0.188985 0.050639 0.200000
          -0.204348 0.000000 0.200000
          -0.205784 -0.055140 0.200000
          -0.192032 -0.110870 0.200000
          -0.162942 -0.162942 0.200000
          -0.119565 -0.207093 0.200000
          -0.064142 -0.239382 0.200000
          -0.000000 -0.256522 0.200000
          0.068643 -0.256180 0.200000
          0.136957 -0.237216 0.200000
          0.199835 -0.199835 0.200000
          0.252277 -0.145652 0.200000
          0.289778 -0.077646 0.200000
          0.100000 0.000000 0.400000
          0.104992 0.028133 0.400000
          0.101664 0.058696 0.400000
          0.089157 0.089157 0.400000
          0.067391 0.116725 0.400000
          0.037135 0.138589 0.400000
          0.000000 0.152174 0.400000
          -0.041636 0.155388 0.400000
          -0.084783 0.146848 0.400000
          -0.126049 0.126049 0.400000
          -0.161909 0.093478 0.400000
          -0.188985 0.050639 0.400000
          -0.204348 0.000000 0.400000
          -0.205784 -0.055140 0.400000
          -0.192032 -0.110870 0.400000
          -0.162942 -0.162942 0.400000
          -0.119565 -0.207093 0.400000
          -0.064142 -0.239382 0.400000
          -0.000000 -0.256522 0.400000
          0.068643 -0.256180 0.400000
          0.136957 -0.237216 0.400000
          0.199835 -0.199835 0.400000
          0.252277 -0.145652 0.400000
          0.289778 -0.077646 0.400000
          0.100000 0.000000 0.600000
          0.104992 0.028133 0.600000
          0.101664 0.058696 0.600000
          0.089157 0.089157 0.600000
          0.067391 0.116725 0.600000
          0.037135 0.138589 0.600000
          0.000000 0.152174 0.600000
          -0.041636 0.155388 0.600000
          -0.084783 0.146848 0.600000
          -0.126049 0.126049 0.600000
          -0.161909 0.093478 0.600000
          -0.188985 0.050639 0.600000
          -0.204348 0.000000 0.600000
          -0.205784 -0.055140 0.600000
          -0.192032 -0.110870 0.600000
          -0.162942 -0.162942 0.600000
          -0.119565 -0.207093 0.600000
          -0.064142 -0.239382 0.600000
          -0.000000 -0.256522 0.600000
          0.068643 -0.256180 0.600000
          0.136957 -0.237216 0.600000
          0.199835 -0.199835 0.600000
          0.252277 -0.145652 0.600000
          0.289778 -0.077646 0.600000
        </DataArray>
      </Points>
      <Cells>
        <DataArray type="Int32" Name="connectivity" format="ascii">
          0 1 2 3 4 5 6 7 8 9 10 11 12 13 14 15 16 17 18 19 20 21 22 23 24 25 26 27 28 29 30 31 32 33 34 35 36 37 38 39 40 41 42 43 44 45 46 47 48 49 50 51 52 53 54 55 56 57 58 59 60 61 62 63 64 65 66 67 68 69 70 71 72 73 74 75 76 77 78 79 80 81 82 83 84 85 86 87 88 89 90 91 92 93 94 95
        </DataArray>
        <DataArray type="Int32" Name="offsets" format="ascii">
          1 2 3 4 5 6 7 8 9 10 11 12 13 14 15 16 17 18 19 20 21 22 23 24 25 26 27 28 29 30 31 32 33 34 35 36 37 38 39 40 41 42 43 44 45 46 47 48 49 50 51 52 53 54 55 56 57 58 59 60 61 62 63 64 65 66 67 68 69 70 71 72 73 74 75 76 77 78 79 80 81 82 83 84 85 86 87 88 89 90 91 92 93 94 95 96
        </DataArray>
        <DataArray type="UInt8" Name="types" format="ascii">
          1 1 1 1 1 1 1 1 1 1 1 1 1 1 1 1 1 1 1 1 1 1 1 1 1 1 1 1 1 1 1 1 1 1 1 1 1 1 1 1 1 1 1 1 1 1 1 1 1 1 1 1 1 1 1 1 1 1 1 1 1 1 1 1 1 1 1 1 1 1 1 1 1 1 1 1 1 1 1 1 1 1 1 1 1 1 1 1 1 1 1 1 1 1 1 1
        </DataArray>
      </Cells>
    </Piece>
  </UnstructuredGrid>
</VTKFile>
