<?xml version="1.0"?>
<VTKFile type="StructuredGrid" version="0.1" byte_order="LittleEndian">
  <StructuredGrid WholeExtent="0 8 0 6 0 1">
    <Piece Extent="0 8 0 6 0 1">
      <PointData>
        <DataArray type="Float32" Name="velocity" NumberOfComponents="3" format="ascii">
          0.000000 0.000000 0.000000
          0.000000 0.000000 0.066667
          0.000000 0.000000 0.133333
          0.000000 0.000000 0.200000
          0.000000 0.000000 0.266667
          0.000000 0.000000 0.333333
          0.000000 0.000000 0.400000
          0.000000 0.000000 0.466667
          0.000000 0.000000 0.533333
          0.000000 0.000000 0.066667
          0.000000 0.000000 0.133333
          0.000000 0.000000 0.200000
          0.000000 0.000000 0.266667
          0.000000 0.000000 0.333333
          0.000000 0.000000 0.400000
          0.000000 0.000000 0.466667
          0.000000 0.000000 0.533333
          0.000000 0.000000 0.600000
          0.000000 0.000000 0.133333
          0.000000 0.000000 0.200000
          0.000000 0.000000 0.266667
          0.000000 0.000000 0.333333
          0.000000 0.000000 0.400000
          0.000000 0.000000 0.466667
          0.000000 0.000000 0.533333
          0.000000 0.000000 0.600000
          0.000000 0.000000 0.666667
          0.000000 0.000000 0.200000
          0.000000 0.000000 0.266667
          0.000000 0.000000 0.333333
          0.000000 0.000000 0.400000
          0.000000 0.000000 0.466667
          0.000000 0.000000 0.533333
          0.000000 0.000000 0.600000
          0.000000 0.000000 0.666667
          0.000000 0.000000 0.733333
          0.000000 0.000000 0.266667
          0.000000 0.000000 0.333333
          0.000000 0.000000 0.400000
          0.000000 0.000000 0.466667
          0.000000 0.000000 0.533333
          0.000000 0.000000 0.600000
          0.000000 0.000000 0.666667
          0.000000 0.000000 0.733333
          0.000000 0.000000 0.800000
          0.000000 0.000000 0.333333
          0.000000 0.000000 0.400000
          0.000000 0.000000 0.466667
          0.000000 0.000000 0.533333
          0.000000 0.000000 0.600000
          0.000000 0.000000 0.666667
          0.000000 0.000000 0.733333
          0.000000 0.000000 0.800000
          0.000000 0.000000 0.866667
          0.000000 0.000000 0.400000
          0.000000 0.000000 0.466667
          0.000000 0.000000 0.533333
          0.000000 0.000000 0.600000
          0.000000 0.000000 0.666667
          0.000000 0.000000 0.733333
          0.000000 0.000000 0.800000
          0.000000 0.000000 0.866667
          0.000000 0.000000 0.933333
          0.000000 0.000000 0.066667
          0.000000 0.000000 0.133333
          0.000000 0.000000 0.200000
          0.000000 0.000000 0.266667
          0.000000 0.000000 0.333333
          0.000000 0.000000 0.400000
          0.000000 0.000000 0.466667
          0.000000 0.000000 0.533333
          0.000000 0.000000 0.600000
          0.000000 0.000000 0.133333
          0.000000 0.000000 0.200000
          0.000000 0.000000 0.266667
          0.000000 0.000000 0.333333
          0.000000 0.000000 0.400000
          0.000000 0.000000 0.466667
          0.000000 0.000000 0.533333
          0.000000 0.000000 0.600000
          0.000000 0.000000 0.666667
          0.000000 0.000000 0.200000
          0.000000 0.000000 0.266667
          0.000000 0.000000 0.333333
          0.000000 0.000000 0.400000
          0.000000 0.000000 0.466667
          0.000000 0.000000 0.533333
          0.000000 0.000000 0.600000
          0.000000 0.000000 0.666667
          0.000000 0.000000 0.733333
          0.000000 0.000000 0.266667
          0.000000 0.000000 0.333333
          0.000000 0.000000 0.400000
          0.000000 0.000000 0.466667
          0.000000 0.000000 0.533333
          0.000000 0.000000 0.600000
          0.000000 0.000000 0.666667
          0.000000 0.000000 0.733333
          0.000000 0.000000 0.800000
          0.000000 0.000000 0.333333
          0.000000 0.000000 0.400000
          0.000000 0.000000 0.466667
          0.000000 0.000000 0.533333
          0.000000 0.000000 0.600000
          0.000000 0.000000 0.666667
          0.000000 0.000000 0.733333
          0.000000 0.000000 0.800000
          0.000000 0.000000 0.866667
          0.000000 0.000000 0.400000
          0.000000 0.000000 0.466667
          0.000000 0.000000 0.533333
          0.000000 0.000000 0.600000
          0.000000 0.000000 0.666667
          0.000000 0.000000 0.733333
          0.000000 0.000000 0.800000
          0.000000 0.000000 0.866667
          0.000000 0.000000 0.933333
          0.000000 0.000000 0.466667
          0.000000 0.000000 0.533333
          0.000000 0.000000 0.600000
          0.000000 0.000000 0.666667
          0.000000 0.000000 0.733333
          0.000000 0.000000 0.800000
          0.000000 0.000000 0.866667
          0.000000 0.000000 0.933333
          0.000000 0.000000 1.000000
        </DataArray>
      </PointData>
      <CellData>
        <DataArray type="Float32" Name="density" NumberOfComponents="1" format="ascii">
          1.000000
          1.083333
          1.166667
          1.250000
          1.333333
          1.416667
          1.500000
          1.583333
          1.083333
          1.166667
          1.250000
          1.333333
          1.416667
          1.500000
          1.583333
          1.666667
          1.166667
          1.250000
          1.333333
          1.416667
          1.500000
          1.583333
          1.666667
          1.750000
          1.250000
          1.333333
          1.416667
          1.500000
          1.583333
          1.666667
          1.750000
          1.833333
          1.333333
          1.416667
          1.500000
          1.583333
          1.666667
          1.750000
          1.833333
          1.916667
          1.416667
          1.500000
          1.583333
          1.666667
          1.750000
          1.833333
          1.916667
          2.000000
        </DataArray>
      </CellData>
      <Points>
        <DataArray type="Float32" NumberOfComponents="3" format="ascii">
          0.000000 0.000000 0.000000
          0.100000 0.000000 0.000000
          0.200000 0.000000 0.000000
          0.300000 0.000000 0.000000
          0.400000 0.000000 0.000000
          0.500000 0.000000 0.000000
          0.600000 0.000000 0.000000
          0.700000 0.000000 0.000000
          0.800000 0.000000 0.000000
          0.000000 0.100000 0.000000
          0.100000 0.100000 0.000000
          0.200000 0.100000 0.000000
          0.300000 0.100000 0.000000
          0.400000 0.100000 0.000000
          0.500000 0.100000 0.000000
          0.600000 0.100000 0.000000
          0.700000 0.100000 0.000000
          0.800000 0.100000 0.000000
          0.000000 0.200000 0.000000
          0.100000 0.200000 0.000000
          0.200000 0.200000 0.000000
          0.300000 0.200000 0.000000
          0.400000 0.200000 0.000000
          0.500000 0.200000 0.000000
          0.600000 0.200000 0.000000
          0.700000 0.200000 0.000000
          0.800000 0.200000 0.000000
          0.000000 0.300000 0.000000
          0.100000 0.300000 0.000000
          0.200000 0.300000 0.000000
          0.300000 0.300000 0.000000
          0.400000 0.300000 0.000000
          0.500000 0.300000 0.000000
          0.600000 0.300000 0.000000
          0.700000 0.300000 0.000000
          0.800000 0.300000 0.000000
          0.000000 0.400000 0.000000
          0.100000 0.400000 0.000000
          0.200000 0.400000 0.000000
          0.300000 0.400000 0.000000
          0.400000 0.400000 0.000000
          0.500000 0.400000 0.000000
          0.600000 0.400000 0.000000
          0.700000 0.400000 0.000000
          0.800000 0.400000 0.000000
          0.000000 0.500000 0.000000
          0.100000 0.500000 0.000000
          0.200000 0.500000 0.000000
          0.300000 0.500000 0.000000
          0.400000 0.500000 0.000000
          0.500000 0.500000 0.000000
          0.600000 0.500000 0.000000
          0.700000 0.500000 0.000000
          0.800000 0.500000 0.000000
          0.000000 0.600000 0.000000
          0.100000 0.600000 0.000000
          0.200000 0.600000 0.000000
          0.300000 0.600000 0.000000
          0.400000 0.600000 0.000000
          0.500000 0.600000 0.000000
          0.600000 0.600000 0.000000
          0.700000 0.600000 0.000000
          0.800000 0.600000 0.000000
          0.000000 0.000000 0.500000
          0.100000 0.000000 0.500000
          0.200000 0.000000 0.500000
          0.300000 0.000000 0.500000
          0.400000 0.000000 0.500000
          0.500000 0.000000 0.500000
          0.600000 0.000000 0.500000
          0.700000 0.000000 0.500000
          0.800000 0.000000 0.500000
          0.000000 0.100000 0.500000
          0.100000 0.100000 0.500000
          0.200000 0.100000 0.500000
          0.300000 0.100000 0.500000
          0.400000 0.100000 0.500000
          0.500000 0.100000 0.500000
          0.600000 0.100000 0.500000
          0.700000 0.100000 0.500000
          0.800000 0.100000 0.500000
          0.000000 0.200000 0.500000
          0.100000 0.200000 0.500000
          0.200000 0.200000 0.500000
          0.300000 0.200000 0.500000
          0.400000 0.200000 0.500000
          0.500000 0.200000 0.500000
          0.600000 0.200000 0.500000
          0.700000 0.200000 0.500000
          0.800000 0.200000 0.500000
          0.000000 0.300000 0.500000
          0.100000 0.300000 0.500000
          0.200000 0.300000 0.500000
          0.300000 0.300000 0.500000
          0.400000 0.300000 0.500000
          0.500000 0.300000 0.500000
          0.600000 0.300000 0.500000
          0.700000 0.300000 0.500000
          0.800000 0.300000 0.500000
          0.000000 0.400000 0.500000
          0.100000 0.400000 0.500000
          0.200000 0.400000 0.500000
          0.300000 0.400000 0.500000
          0.400000 0.400000 0.500000
          0.500000 0.400000 0.500000
          0.600000 0.400000 0.500000
          0.700000 0.400000 0.500000
          0.800000 0.400000 0.500000
          0.000000 0.500000 0.500000
          0.100000 0.500000 0.500000
          0.200000 0.500000 0.500000
          0.300000 0.500000 0.500000
          0.400000 0.500000 0.500000
          0.500000 0.500000 0.500000
          0.600000 0.500000 0.500000
          0.700000 0.500000 0.500000
          0.800000 0.500000 0.500000
          0.000000 0.600000 0.500000
          0.100000 0.600000 0.500000
          0.200000 0.600000 0.500000
          0.300000 0.600000 0.500000
          0.400000 0.600000 0.500000
          0.500000 0.600000 0.500000
          0.600000 0.600000 0.500000
          0.700000 0.600000 0.500000
          0.800000 0.600000 0.500000
        </DataArray>
      </Points>
    </Piece>
  </StructuredGrid>
</VTKFile>
