<?xml version="1.0"?>
<VTKFile type="UnstructuredGrid" version="0.1" byte_order="LittleEndian">
  <UnstructuredGrid>
    <Piece NumberOfPoints="32" NumberOfCells="32">
      <PointData>
        <DataArray type="Float32" Name="velocity" NumberOfComponents="3" format="ascii">
          -0.058156 0.081018 0.059956
          0.031543 0.172813 0.008832
          0.174453 0.088185 0.026685
          -0.152580 -0.177693 -0.074905
          0.131818 0.162669 0.022989
          -0.164851 0.001656 -0.052750
          0.033574 0.092736 -0.067593
          -0.149874 -0.158281 0.088719
          0.024670 0.197849 0.026302
          0.038154 0.024013 0.008857
          -0.074104 -0.150854 -0.094216
          -0.175407 0.054140 0.024979
          0.047946 -0.115931 -0.058429
          -0.123962 -0.125537 -0.037268
          0.093039 0.053720 0.066924
          0.122328 -0.113088 0.017266
          -0.020507 -0.032631 0.040606
          0.152954 -0.135850 -0.020420
          0.101051 -0.057328 0.037326
          -0.152300 0.069881 0.054565
          0.100844 -0.032312 0.095270
          -0.114327 -0.014153 -0.000718
          0.122330 -0.027374 -0.097870
          -0.064005 0.189272 0.087627
          -0.097729 0.093230 -0.054980
          0.187720 0.130607 0.069272
          -0.172995 0.153125 -0.065009
          0.144527 -0.077022 0.083284
          -0.001996 -0.054841 -0.006746
          -0.026458 -0.003225 -0.034732
          -0.185086 -0.151366 -0.027316
          0.054668 -0.127737 0.041021
        </DataArray>
        <DataArray type="Int32" Name="phase" NumberOfComponents="1" format="ascii">
          0
          1
          0
          1
          0
          0
          1
          0
          0
          0
          1
          0
          1
          1
          0
          0
          0
          0
          0
          1
          1
          1
          0
          0
          1
          1
          1
          1
          0
          1
          1
          1
        </DataArray>
      </PointData>
      <CellData/>
      <Points>
        <DataArray type="Float32" NumberOfComponents="3" format="ascii">
          -0.014955 0.114132 -0.039250
          0.193649 -0.044956 0.043323
          -0.117389 -0.127417 0.062516
          -0.000849 -0.042064 0.045552
          0.231625 -0.095235 0.040812
          0.009675 0.115680 0.099933
          -0.146809 0.126295 -0.006293
          0.104517 0.185953 -0.070326
          -0.143694 -0.044045 -0.088303
          -0.075278 -0.041715 -0.075163
          0.121752 0.131406 -0.021939
          -0.077352 -0.149426 -0.014639
          -0.091773 -0.142971 0.073560
          -0.135448 -0.229756 -0.054956
          -0.240290 0.182706 0.068792
          -0.090388 0.230173 0.060876
          -0.039475 -0.193983 0.070268
          0.053349 -0.134699 0.099017
          -0.067145 -0.148454 -0.001332
          0.168257 -0.179301 -0.022546
          -0.081370 0.220026 0.099833
          -0.017519 -0.165092 0.039118
          0.180592 -0.084093 -0.058618
          0.093287 -0.201005 0.068711
          -0.247842 -0.174671 0.040768
          -0.074857 -0.209281 0.060602
          -0.130358 -0.019418 -0.047275
          0.011849 -0.031991 0.094403
          -0.149532 -0.214576 -0.039500
          -0.182116 0.080802 -0.049995
          -0.199694 -0.140657 -0.060912
          -0.055701 0.007634 -0.055353
        </DataArray>
      </Points>
      <Cells>
        <DataArray type="Int32" Name="connectivity" format="ascii">
          0 1 2 3 4 5 6 7 8 9 10 11 12 13 14 15 16 17 18 19 20 21 22 23 24 25 26 27 28 29 30 31
        </DataArray>
        <DataArray type="Int32" Name="offsets" format="ascii">
          1 2 3 4 5 6 7 8 9 10 11 12 13 14 15 16 17 18 19 20 21 22 23 24 25 26 27 28 29 30 31 32
        </DataArray>
        <DataArray type="UInt8" Name="types" format="ascii">
          1 1 1 1 1 1 1 1 1 1 1 1 1 1 1 1 1 1 1 1 1 1 1 1 1 1 1 1 1 1 1 1
        </DataArray>
      </Cells>
    </Piece>
  </UnstructuredGrid>
</VTKFile>
